
#(C) 2024 by FIZ Karlsruhe - Leibniz Institute for Information Infrastructure.  All rights reserved.
data_19801-ICSD
_database_code_ICSD 19801
_audit_creation_date 2021-08-01
_chemical_name_common 'Barium titanate'
_chemical_formula_structural 'Ba Ti O3'
_chemical_formula_sum 'Ba1 O3 Ti1'
_chemical_name_structure_type Perovskite#PbTiO3(P4mm)
_exptl_crystal_density_diffrn 6.01
_diffrn_ambient_temperature 290.
_citation_title

;
Neutron total scattering studies of group II titanates (ATiO$_3$, A$^{2+}$ =
Mg, Ca, Sr, Ba)
;
loop_
_citation_id
_citation_journal_full
_citation_year
_citation_journal_volume
_citation_page_first
_citation_page_last
_citation_journal_id_ASTM
primary 'Scientific Reports' 2020 10 1 10 SRCEC3
loop_
_citation_author_citation_id
_citation_author_name
primary 'Culbertson, Charles M.'
primary 'Flak, Alexander T.'
primary 'Yatskin, Michael'
primary 'Cheong, Paul H.-Y.'
primary 'Cann, David P.'
primary 'Dolgos, Michelle R.'
_cell_length_a 3.9976(8)
_cell_length_b 3.9976(8)
_cell_length_c 4.0347(6)
_cell_angle_alpha 90.
_cell_angle_beta 90.
_cell_angle_gamma 90.
_cell_volume 64.48
_cell_formula_units_Z 1
_space_group_name_H-M_alt 'P 4 m m'
_space_group_IT_number 99
loop_
_space_group_symop_id
_space_group_symop_operation_xyz
1 'y, -x, z'
2 '-y, x, z'
3 '-y, -x, z'
4 'y, x, z'
5 'x, -y, z'
6 '-x, y, z'
7 '-x, -y, z'
8 'x, y, z'
loop_
_atom_type_symbol
_atom_type_oxidation_number
Ba2+ 2
Ti4+ 4
O2- -2
loop_
_atom_site_label
_atom_site_type_symbol
_atom_site_symmetry_multiplicity
_atom_site_Wyckoff_symbol
_atom_site_fract_x
_atom_site_fract_y
_atom_site_fract_z
_atom_site_B_iso_or_equiv
_atom_site_occupancy
Ba1 Ba2+ 1 a 0 0 0 0.029(6) 1.
Ti1 Ti4+ 1 b 0.5 0.5 0.508(5) 1.08(4) 1.
O1 O2- 1 b 0.5 0.5 0.023(3) 1.22(1) 1.
O2 O2- 2 c 0.5 0 0.506(1) 0.481(6) 1.
#End of TTdata_19801-ICSD