
#(C) 2024 by FIZ Karlsruhe - Leibniz Institute for Information Infrastructure.  All rights reserved.
data_2360-ICSD
_database_code_ICSD 2360
_audit_creation_date 1980-01-01
_audit_update_record 2013-02-01
_chemical_name_common 'Lanthanum boride (1/4)'
_chemical_formula_structural 'La B4'
_chemical_formula_sum 'B4 La1'
_chemical_name_structure_type UB4
_exptl_crystal_density_diffrn 5.39
_citation_title 'Lanthanum tetraboride'
loop_
_citation_id
_citation_journal_full
_citation_year
_citation_journal_volume
_citation_page_first
_citation_page_last
_citation_journal_id_ASTM
primary

;
Acta Crystallographica, Section B: Structural Crystallography and Crystal
Chemistry
; 1974 30 2933 2934 ACBCAR
loop_
_citation_author_citation_id
_citation_author_name
primary 'Kato, K.'
primary 'Kawada, I.'
primary 'Oshima, C.'
primary 'Kawai, S.'
_cell_length_a 7.324(1)
_cell_length_b 7.324(1)
_cell_length_c 4.181(1)
_cell_angle_alpha 90.
_cell_angle_beta 90.
_cell_angle_gamma 90.
_cell_volume 224.27
_cell_formula_units_Z 4
_space_group_name_H-M_alt 'P 4/m b m'
_space_group_IT_number 127
loop_
_space_group_symop_id
_space_group_symop_operation_xyz
1 'y+1/2, x+1/2, -z'
2 '-y+1/2, -x+1/2, -z'
3 '-y, x, -z'
4 'y, -x, -z'
5 'x+1/2, -y+1/2, -z'
6 '-x+1/2, y+1/2, -z'
7 'x, y, -z'
8 '-x, -y, -z'
9 '-y+1/2, -x+1/2, z'
10 'y+1/2, x+1/2, z'
11 'y, -x, z'
12 '-y, x, z'
13 '-x+1/2, y+1/2, z'
14 'x+1/2, -y+1/2, z'
15 '-x, -y, z'
16 'x, y, z'
loop_
_atom_type_symbol
_atom_type_oxidation_number
La0+ 0
B0+ 0
loop_
_atom_site_label
_atom_site_type_symbol
_atom_site_symmetry_multiplicity
_atom_site_Wyckoff_symbol
_atom_site_fract_x
_atom_site_fract_y
_atom_site_fract_z
_atom_site_B_iso_or_equiv
_atom_site_occupancy
La1 La0+ 4 g 0.31661(6) 0.81661(6) 0 . 1.
B1 B0+ 4 e 0 0 0.2088(30) 0.32 1.
B2 B0+ 4 h 0.0884(12) 0.5884(12) 0.5 0.41 1.
B3 B0+ 8 j 0.1743(12) 0.0394(11) 0.5 0.29 1.
loop_
_atom_site_aniso_label
_atom_site_aniso_type_symbol
_atom_site_aniso_beta_11
_atom_site_aniso_beta_22
_atom_site_aniso_beta_33
_atom_site_aniso_beta_12
_atom_site_aniso_beta_13
_atom_site_aniso_beta_23
La1 La0+ 0.00067(6) 0.00067(6) 0.00500(27) 0.00025(7) 0 0
#End of TTdata_2360-ICSD