
#(C) 2024 by FIZ Karlsruhe - Leibniz Institute for Information Infrastructure.  All rights reserved.
data_11084-ICSD
_database_code_ICSD 11084
_audit_creation_date 2020-08-01
_chemical_name_common 'Iron boride (1/1)'
_chemical_formula_structural 'Fe B'
_chemical_formula_sum 'B1 Fe1'
_chemical_name_structure_type FeB
_exptl_crystal_density_diffrn 6.72
_diffrn_ambient_temperature 300.
_citation_title

;
Magnetostructural coupling drives magnetocaloric behavior: the case of MnB
versus FeB
;
loop_
_citation_id
_citation_journal_full
_citation_year
_citation_journal_volume
_citation_page_first
_citation_page_last
_citation_journal_id_ASTM
primary 'Chemistry of Materials' 2019 31 4873 4881 CMATEX
loop_
_citation_author_citation_id
_citation_author_name
primary 'Bocarsly, Joshua'
primary 'Levin, Emily E.'
primary 'Humphrey, Samuel A.'
primary 'Faske, Tom'
primary 'Donner, Wolfgang'
primary 'Wilson, Stephen D.'
primary 'Seshadri, Ram'
_cell_length_a 5.502008(9)
_cell_length_b 2.948246(4)
_cell_length_c 4.059604(7)
_cell_angle_alpha 90
_cell_angle_beta 90
_cell_angle_gamma 90
_cell_volume 65.85
_cell_formula_units_Z 4
_space_group_name_H-M_alt 'P n m a'
_space_group_IT_number 62
loop_
_space_group_symop_id
_space_group_symop_operation_xyz
1 'x+1/2, y, -z+1/2'
2 'x, -y+1/2, z'
3 '-x+1/2, y+1/2, z+1/2'
4 '-x, -y, -z'
5 '-x+1/2, -y, z+1/2'
6 '-x, y+1/2, -z'
7 'x+1/2, -y+1/2, -z+1/2'
8 'x, y, z'
loop_
_atom_type_symbol
_atom_type_oxidation_number
Fe3+ 3
B3- -3
loop_
_atom_site_label
_atom_site_type_symbol
_atom_site_symmetry_multiplicity
_atom_site_Wyckoff_symbol
_atom_site_fract_x
_atom_site_fract_y
_atom_site_fract_z
_atom_site_B_iso_or_equiv
_atom_site_occupancy
Fe1 Fe3+ 4 c 0.17709(3) 0.25 0.11988(4) 0.162(2) 1
B1 B3- 4 c 0.03630(19) 0.25 0.6141(3) 0.294(14) 1
#End of TTdata_11084-ICSD